
     Program PWSCF v.6.1 (svn rev. 13369) starts on 19Jun2019 at 16:36:53 

     This program is part of the open-source Quantum ESPRESSO suite
     for quantum simulation of materials; please cite
         "P. Giannozzi et al., J. Phys.:Condens. Matter 21 395502 (2009);
          URL http://www.quantum-espresso.org", 
     in publications or presentations arising from this work. More details at
     http://www.quantum-espresso.org/quote

     Parallel version (MPI), running on    36 processors
     K-points division:     npool     =       2
     R & G space division:  proc/nbgrp/npool/nimage =      18
     Reading input from scf.in
Warning: card &IONS ignored
Warning: card / ignored

     Current dimensions of program PWSCF are:
     Max number of different atomic species (ntypx) = 10
     Max number of k-points (npk) =  40000
     Max angular momentum in pseudopotentials (lmaxx) =  3

     Subspace diagonalization in iterative solution of the eigenvalue problem:
     one sub-group per band group will be used
     scalapack distributed-memory algorithm (size of sub-group:  3*  3 procs)

 
     Parallelization info
     --------------------
     sticks:   dense  smooth     PW     G-vecs:    dense   smooth      PW
     Min          32      32      8                  580      580      74
     Max          33      33      9                  583      583      77
     Sum         577     577    145                10443    10443    1357
 


     bravais-lattice index     =            0
     lattice parameter (alat)  =      13.4862  a.u.
     unit-cell volume          =    2452.8359 (a.u.)^3
     number of atoms/cell      =           63
     number of atomic types    =            2
     number of electrons       =       254.00
     number of Kohn-Sham states=          152
     kinetic-energy cutoff     =      10.0000  Ry
     charge density cutoff     =      40.0000  Ry
     convergence threshold     =      1.0E-06
     mixing beta               =       0.5000
     number of iterations used =            8  plain     mixing
     Exchange-correlation      = PBE ( 1  4  3  4 0 0)

     celldm(1)=  13.486197  celldm(2)=   0.000000  celldm(3)=   0.000000
     celldm(4)=   0.000000  celldm(5)=   0.000000  celldm(6)=   0.000000

     crystal axes: (cart. coord. in units of alat)
               a(1) = (   1.000000   0.000000   0.000000 )  
               a(2) = (   0.000000   1.000000   0.000000 )  
               a(3) = (   0.000000   0.000000   1.000000 )  

     reciprocal axes: (cart. coord. in units 2 pi/alat)
               b(1) = (  1.000000  0.000000  0.000000 )  
               b(2) = (  0.000000  1.000000  0.000000 )  
               b(3) = (  0.000000  0.000000  1.000000 )  


     PseudoPot. # 1 for C  read from file:
     /g/g13/smart8/Pseudo/C_ONCV_PBE-1.0.upf
     MD5 check sum: 72b63e32b2fd29504de26a4901699f60
     Pseudo is Norm-conserving, Zval =  4.0
     Generated using ONCVPSP code by D. R. Hamann
     Using radial grid of 1248 points,  4 beta functions with: 
                l(1) =   0
                l(2) =   0
                l(3) =   1
                l(4) =   1

     PseudoPot. # 2 for N  read from file:
     /g/g13/smart8/Pseudo/N_ONCV_PBE-1.0.upf
     MD5 check sum: 09890da6b2972017450f7114a6086fad
     Pseudo is Norm-conserving, Zval =  5.0
     Generated using ONCVPSP code by D. R. Hamann
     Using radial grid of 1058 points,  4 beta functions with: 
                l(1) =   0
                l(2) =   0
                l(3) =   1
                l(4) =   1

     atomic species   valence    mass     pseudopotential
        C              4.00    12.01110     C ( 1.00)
        N              5.00    14.00670     N ( 1.00)

     Starting magnetic structure 
     atomic species   magnetization
        C            0.000
        N            1.000

      6 Sym. Ops. (no inversion) found


                                    s                        frac. trans.

      isym =  1     identity                                     

 cryst.   s( 1) = (     1          0          0      )
                  (     0          1          0      )
                  (     0          0          1      )

 cart.    s( 1) = (  1.0000000  0.0000000  0.0000000 )
                  (  0.0000000  1.0000000  0.0000000 )
                  (  0.0000000  0.0000000  1.0000000 )


      isym =  2     120 deg rotation - cart. axis [-1,1,1]       

 cryst.   s( 2) = (     0          0         -1      )
                  (    -1          0          0      )
                  (     0          1          0      )

 cart.    s( 2) = (  0.0000000 -1.0000000  0.0000000 )
                  (  0.0000000  0.0000000  1.0000000 )
                  ( -1.0000000  0.0000000  0.0000000 )


      isym =  3     120 deg rotation - cart. axis [1,-1,-1]      

 cryst.   s( 3) = (     0         -1          0      )
                  (     0          0          1      )
                  (    -1          0          0      )

 cart.    s( 3) = (  0.0000000  0.0000000 -1.0000000 )
                  ( -1.0000000  0.0000000  0.0000000 )
                  (  0.0000000  1.0000000  0.0000000 )


      isym =  4     inv. 180 deg rotation - cart. axis [1,1,0]   

 cryst.   s( 4) = (     0         -1          0      )
                  (    -1          0          0      )
                  (     0          0          1      )

 cart.    s( 4) = (  0.0000000 -1.0000000  0.0000000 )
                  ( -1.0000000  0.0000000  0.0000000 )
                  (  0.0000000  0.0000000  1.0000000 )


      isym =  5     inv. 180 deg rotation - cart. axis [1,0,1]   

 cryst.   s( 5) = (     0          0         -1      )
                  (     0          1          0      )
                  (    -1          0          0      )

 cart.    s( 5) = (  0.0000000  0.0000000 -1.0000000 )
                  (  0.0000000  1.0000000  0.0000000 )
                  ( -1.0000000  0.0000000  0.0000000 )


      isym =  6     inv. 180 deg rotation - cart. axis [0,1,-1]  

 cryst.   s( 6) = (     1          0          0      )
                  (     0          0          1      )
                  (     0          1          0      )

 cart.    s( 6) = (  1.0000000  0.0000000  0.0000000 )
                  (  0.0000000  0.0000000  1.0000000 )
                  (  0.0000000  1.0000000  0.0000000 )


   Cartesian axes

     site n.     atom                  positions (alat units)
         1           C   tau(   1) = (   0.0001362  -0.0001362  -0.0001362  )
         2           C   tau(   2) = (   0.7499676   0.2500325  -0.0013000  )
         3           C   tau(   3) = (   0.4998651   0.5001349   0.0001122  )
         4           C   tau(   4) = (   0.2501607   0.7498393   0.0001583  )
         5           C   tau(   5) = (   0.0013000   0.2500325   0.2500325  )
         6           C   tau(   6) = (   0.7496124   0.4943770   0.2503877  )
         7           C   tau(   7) = (   0.4984909   0.7481000   0.2526997  )
         8           C   tau(   8) = (   0.2510721   0.0009678   0.2504043  )
         9           C   tau(   9) = (  -0.0001122   0.5001349   0.5001350  )
        10           C   tau(  10) = (   0.7473003   0.7481000   0.5015091  )
        11           C   tau(  11) = (   0.4998651   0.0001122   0.5001349  )
        12           C   tau(  12) = (   0.2519000   0.2526997   0.5015091  )
        13           C   tau(  13) = (  -0.0001583   0.7498393   0.7498393  )
        14           C   tau(  14) = (   0.7495957   0.0009678   0.7489279  )
        15           C   tau(  15) = (   0.4984909   0.2526997   0.7481001  )
        16           C   tau(  16) = (   0.2504215   0.4992390   0.7495785  )
        17           C   tau(  17) = (   0.7499676  -0.0013000   0.2500325  )
        18           C   tau(  18) = (   0.5056230   0.2503877   0.2503877  )
        19           C   tau(  19) = (   0.2518999   0.5015091   0.2526998  )
        20           C   tau(  20) = (  -0.0009678   0.7489279   0.2504044  )
        21           C   tau(  21) = (   0.7496124   0.2503877   0.4943771  )
        22           C   tau(  22) = (   0.2504215   0.7495784   0.4992391  )
        23           C   tau(  23) = (  -0.0000386   0.0000386   0.4999672  )
        24           C   tau(  24) = (   0.7473003   0.5015091   0.7481000  )
        25           C   tau(  25) = (   0.5007611   0.7495784   0.7495784  )
        26           C   tau(  26) = (   0.2501607   0.0001583   0.7498394  )
        27           C   tau(  27) = (  -0.0009678   0.2504043   0.7489279  )
        28           C   tau(  28) = (   0.7495957   0.7489279   0.0009678  )
        29           C   tau(  29) = (   0.5000328   0.0000386   0.0000386  )
        30           C   tau(  30) = (   0.2510721   0.2504043   0.0009678  )
        31           C   tau(  31) = (  -0.0000386   0.4999672   0.0000386  )
        32           C   tau(  32) = (   0.1259164   0.1252516   0.1252516  )
        33           C   tau(  33) = (   0.8764465   0.3747508   0.1235536  )
        34           C   tau(  34) = (   0.6237121   0.6228769   0.1272087  )
        35           C   tau(  35) = (   0.3756712   0.8756450   0.1247392  )
        36           C   tau(  36) = (   0.1261110   0.3755800   0.3755800  )
        37           C   tau(  37) = (   0.8727913   0.6228769   0.3762880  )
        38           C   tau(  38) = (   0.6244200   0.8738889   0.3755800  )
        39           C   tau(  39) = (   0.3771232   0.1272086   0.3762879  )
        40           C   tau(  40) = (   0.1251949   0.6249905   0.6249906  )
        41           C   tau(  41) = (   0.8752609   0.8756450   0.6243288  )
        42           C   tau(  42) = (   0.6237121   0.1272087   0.6228769  )
        43           C   tau(  43) = (   0.3661907   0.3696872   0.6338093  )
        44           C   tau(  44) = (   0.1251559   0.8748441   0.8748441  )
        45           C   tau(  45) = (   0.8747485   0.1252516   0.8740836  )
        46           C   tau(  46) = (   0.6244200   0.3755800   0.8738890  )
        47           C   tau(  47) = (   0.3750094   0.6249906   0.8748052  )
        48           C   tau(  48) = (   0.8764465   0.1235535   0.3747508  )
        49           C   tau(  49) = (   0.3661907   0.6338093   0.3696873  )
        50           C   tau(  50) = (   0.1239838   0.8760162   0.3759929  )
        51           C   tau(  51) = (   0.8727914   0.3762879   0.6228769  )
        52           C   tau(  52) = (   0.6303128   0.6338092   0.6338093  )
        53           C   tau(  53) = (   0.3750094   0.8748050   0.6249906  )
        54           C   tau(  54) = (   0.1243550   0.1247391   0.6243289  )
        55           C   tau(  55) = (   0.8752609   0.6243287   0.8756451  )
        56           C   tau(  56) = (   0.6240071   0.8760163   0.8760163  )
        57           C   tau(  57) = (   0.3756712   0.1247391   0.8756450  )
        58           C   tau(  58) = (   0.1239838   0.3759929   0.8760163  )
        59           C   tau(  59) = (   0.8747485   0.8740836   0.1252516  )
        60           C   tau(  60) = (   0.6252492   0.1235536   0.1235536  )
        61           C   tau(  61) = (   0.3771232   0.3762879   0.1272087  )
        62           C   tau(  62) = (   0.1243549   0.6243288   0.1247392  )
        63           N   tau(  63) = (   0.6362864   0.3637136   0.3637136  )

   Crystallographic axes

     site n.     atom                  positions (cryst. coord.)
         1           C   tau(   1) = (  0.0001362 -0.0001362 -0.0001362  )
         2           C   tau(   2) = (  0.7499676  0.2500325 -0.0013000  )
         3           C   tau(   3) = (  0.4998651  0.5001349  0.0001122  )
         4           C   tau(   4) = (  0.2501607  0.7498393  0.0001583  )
         5           C   tau(   5) = (  0.0013000  0.2500325  0.2500325  )
         6           C   tau(   6) = (  0.7496124  0.4943770  0.2503877  )
         7           C   tau(   7) = (  0.4984909  0.7481000  0.2526997  )
         8           C   tau(   8) = (  0.2510721  0.0009678  0.2504043  )
         9           C   tau(   9) = ( -0.0001122  0.5001349  0.5001350  )
        10           C   tau(  10) = (  0.7473003  0.7481000  0.5015091  )
        11           C   tau(  11) = (  0.4998651  0.0001122  0.5001349  )
        12           C   tau(  12) = (  0.2519000  0.2526997  0.5015091  )
        13           C   tau(  13) = ( -0.0001583  0.7498393  0.7498393  )
        14           C   tau(  14) = (  0.7495957  0.0009678  0.7489279  )
        15           C   tau(  15) = (  0.4984909  0.2526997  0.7481001  )
        16           C   tau(  16) = (  0.2504215  0.4992390  0.7495785  )
        17           C   tau(  17) = (  0.7499676 -0.0013000  0.2500325  )
        18           C   tau(  18) = (  0.5056230  0.2503877  0.2503877  )
        19           C   tau(  19) = (  0.2518999  0.5015091  0.2526998  )
        20           C   tau(  20) = ( -0.0009678  0.7489279  0.2504044  )
        21           C   tau(  21) = (  0.7496124  0.2503877  0.4943771  )
        22           C   tau(  22) = (  0.2504215  0.7495784  0.4992391  )
        23           C   tau(  23) = ( -0.0000386  0.0000386  0.4999672  )
        24           C   tau(  24) = (  0.7473003  0.5015091  0.7481000  )
        25           C   tau(  25) = (  0.5007611  0.7495784  0.7495784  )
        26           C   tau(  26) = (  0.2501607  0.0001583  0.7498394  )
        27           C   tau(  27) = ( -0.0009678  0.2504043  0.7489279  )
        28           C   tau(  28) = (  0.7495957  0.7489279  0.0009678  )
        29           C   tau(  29) = (  0.5000328  0.0000386  0.0000386  )
        30           C   tau(  30) = (  0.2510721  0.2504043  0.0009678  )
        31           C   tau(  31) = ( -0.0000386  0.4999672  0.0000386  )
        32           C   tau(  32) = (  0.1259164  0.1252516  0.1252516  )
        33           C   tau(  33) = (  0.8764465  0.3747508  0.1235536  )
        34           C   tau(  34) = (  0.6237121  0.6228769  0.1272087  )
        35           C   tau(  35) = (  0.3756712  0.8756450  0.1247392  )
        36           C   tau(  36) = (  0.1261110  0.3755800  0.3755800  )
        37           C   tau(  37) = (  0.8727913  0.6228769  0.3762880  )
        38           C   tau(  38) = (  0.6244200  0.8738889  0.3755800  )
        39           C   tau(  39) = (  0.3771232  0.1272086  0.3762879  )
        40           C   tau(  40) = (  0.1251949  0.6249905  0.6249906  )
        41           C   tau(  41) = (  0.8752609  0.8756450  0.6243288  )
        42           C   tau(  42) = (  0.6237121  0.1272087  0.6228769  )
        43           C   tau(  43) = (  0.3661907  0.3696872  0.6338093  )
        44           C   tau(  44) = (  0.1251559  0.8748441  0.8748441  )
        45           C   tau(  45) = (  0.8747485  0.1252516  0.8740836  )
        46           C   tau(  46) = (  0.6244200  0.3755800  0.8738890  )
        47           C   tau(  47) = (  0.3750094  0.6249906  0.8748052  )
        48           C   tau(  48) = (  0.8764465  0.1235535  0.3747508  )
        49           C   tau(  49) = (  0.3661907  0.6338093  0.3696873  )
        50           C   tau(  50) = (  0.1239838  0.8760162  0.3759929  )
        51           C   tau(  51) = (  0.8727914  0.3762879  0.6228769  )
        52           C   tau(  52) = (  0.6303128  0.6338092  0.6338093  )
        53           C   tau(  53) = (  0.3750094  0.8748050  0.6249906  )
        54           C   tau(  54) = (  0.1243550  0.1247391  0.6243289  )
        55           C   tau(  55) = (  0.8752609  0.6243287  0.8756451  )
        56           C   tau(  56) = (  0.6240071  0.8760163  0.8760163  )
        57           C   tau(  57) = (  0.3756712  0.1247391  0.8756450  )
        58           C   tau(  58) = (  0.1239838  0.3759929  0.8760163  )
        59           C   tau(  59) = (  0.8747485  0.8740836  0.1252516  )
        60           C   tau(  60) = (  0.6252492  0.1235536  0.1235536  )
        61           C   tau(  61) = (  0.3771232  0.3762879  0.1272087  )
        62           C   tau(  62) = (  0.1243549  0.6243288  0.1247392  )
        63           N   tau(  63) = (  0.6362864  0.3637136  0.3637136  )

     number of k points=     1  Marzari-Vanderbilt smearing, width (Ry)=  0.0010
                       cart. coord. in units 2pi/alat
        k(    1) = (   0.0000000   0.0000000   0.0000000), wk =   1.0000000

                       cryst. coord.
        k(    1) = (   0.0000000   0.0000000   0.0000000), wk =   1.0000000

     Dense  grid:    10443 G-vectors     FFT dimensions: (  27,  27,  27)

     Estimated max dynamical RAM per process >       4.38MB

     Estimated total allocated dynamical RAM >     157.64MB
     Generating pointlists ...
     new r_m :   0.0853 (alat units)  1.1503 (a.u.) for type    1
     new r_m :   0.0853 (alat units)  1.1503 (a.u.) for type    2

     Initial potential from superposition of free atoms

     starting charge  252.99722, renormalised to  254.00000
     Starting wfc are  252 randomized atomic wfcs

     total cpu time spent up to now is        0.6 secs

     per-process dynamical memory:    43.2 Mb

     Self-consistent Calculation

     iteration #  1     ecut=    10.00 Ry     beta=0.50
     Davidson diagonalization with overlap
     ethr =  1.00E-02,  avg # of iterations =  4.0

     total cpu time spent up to now is        1.0 secs

     total energy              =    -668.64792190 Ry
     Harris-Foulkes estimate   =    -669.04764254 Ry
     estimated scf accuracy    <       5.45988350 Ry

     total magnetization       =     2.00 Bohr mag/cell
     absolute magnetization    =     2.48 Bohr mag/cell

     iteration #  2     ecut=    10.00 Ry     beta=0.50
     Davidson diagonalization with overlap
     ethr =  2.15E-03,  avg # of iterations =  3.0

     total cpu time spent up to now is        1.2 secs

     total energy              =    -668.71173165 Ry
     Harris-Foulkes estimate   =    -669.53352001 Ry
     estimated scf accuracy    <       2.94870851 Ry

     total magnetization       =     0.00 Bohr mag/cell
     absolute magnetization    =     0.92 Bohr mag/cell

     iteration #  3     ecut=    10.00 Ry     beta=0.50
     Davidson diagonalization with overlap
     ethr =  1.16E-03,  avg # of iterations =  4.5

     total cpu time spent up to now is        1.6 secs

     total energy              =    -669.15728212 Ry
     Harris-Foulkes estimate   =    -669.56396018 Ry
     estimated scf accuracy    <       1.80135569 Ry

     total magnetization       =     2.00 Bohr mag/cell
     absolute magnetization    =     2.16 Bohr mag/cell

     iteration #  4     ecut=    10.00 Ry     beta=0.50
     Davidson diagonalization with overlap
     ethr =  7.09E-04,  avg # of iterations =  4.5

     total cpu time spent up to now is        1.9 secs

     total energy              =    -669.42268867 Ry
     Harris-Foulkes estimate   =    -669.47834100 Ry
     estimated scf accuracy    <       0.22605462 Ry

     total magnetization       =     2.00 Bohr mag/cell
     absolute magnetization    =     2.16 Bohr mag/cell

     iteration #  5     ecut=    10.00 Ry     beta=0.50
     Davidson diagonalization with overlap
     ethr =  8.90E-05,  avg # of iterations =  6.0

     total cpu time spent up to now is        2.3 secs

     total energy              =    -669.46905244 Ry
     Harris-Foulkes estimate   =    -669.47536137 Ry
     estimated scf accuracy    <       0.03762570 Ry

     total magnetization       =     2.00 Bohr mag/cell
     absolute magnetization    =     2.13 Bohr mag/cell

     iteration #  6     ecut=    10.00 Ry     beta=0.50
     Davidson diagonalization with overlap
     ethr =  1.48E-05,  avg # of iterations =  5.5

     total cpu time spent up to now is        2.7 secs

     total energy              =    -669.47894769 Ry
     Harris-Foulkes estimate   =    -669.47686836 Ry
     estimated scf accuracy    <       0.00593231 Ry

     total magnetization       =     2.00 Bohr mag/cell
     absolute magnetization    =     2.13 Bohr mag/cell

     iteration #  7     ecut=    10.00 Ry     beta=0.50
     Davidson diagonalization with overlap
     ethr =  2.34E-06,  avg # of iterations = 12.0

     total cpu time spent up to now is        3.6 secs

     total energy              =    -669.48147475 Ry
     Harris-Foulkes estimate   =    -669.48020802 Ry
     estimated scf accuracy    <       0.00115174 Ry

     total magnetization       =     2.00 Bohr mag/cell
     absolute magnetization    =     2.15 Bohr mag/cell

     iteration #  8     ecut=    10.00 Ry     beta=0.50
     Davidson diagonalization with overlap
     ethr =  4.53E-07,  avg # of iterations =  3.0

     total cpu time spent up to now is        3.8 secs

     total energy              =    -669.48212376 Ry
     Harris-Foulkes estimate   =    -669.48182753 Ry
     estimated scf accuracy    <       0.00013604 Ry

     total magnetization       =     2.00 Bohr mag/cell
     absolute magnetization    =     2.16 Bohr mag/cell

     iteration #  9     ecut=    10.00 Ry     beta=0.50
     Davidson diagonalization with overlap
     ethr =  5.36E-08,  avg # of iterations =  3.0

     total cpu time spent up to now is        4.0 secs

     total energy              =    -669.48223548 Ry
     Harris-Foulkes estimate   =    -669.48218341 Ry
     estimated scf accuracy    <       0.00002339 Ry

     total magnetization       =     2.00 Bohr mag/cell
     absolute magnetization    =     2.18 Bohr mag/cell

     iteration # 10     ecut=    10.00 Ry     beta=0.50
     Davidson diagonalization with overlap
     ethr =  9.21E-09,  avg # of iterations =  3.0

     total cpu time spent up to now is        4.3 secs

     total energy              =    -669.48225640 Ry
     Harris-Foulkes estimate   =    -669.48224833 Ry
     estimated scf accuracy    <       0.00000469 Ry

     total magnetization       =     2.00 Bohr mag/cell
     absolute magnetization    =     2.18 Bohr mag/cell

     iteration # 11     ecut=    10.00 Ry     beta=0.50
     Davidson diagonalization with overlap
     ethr =  1.85E-09,  avg # of iterations =  3.0
 
     Magnetic moment per site:
     atom:    1    charge:    1.5544    magn:    0.0048    constr:    0.0000
     atom:    2    charge:    1.4690    magn:    0.0009    constr:    0.0000
     atom:    3    charge:    1.4280    magn:   -0.0009    constr:    0.0000
     atom:    4    charge:    1.4671    magn:   -0.0001    constr:    0.0000
     atom:    5    charge:    1.4690    magn:    0.0009    constr:    0.0000
     atom:    6    charge:    1.4362    magn:    0.0002    constr:    0.0000
     atom:    7    charge:    1.4419    magn:    0.0028    constr:    0.0000
     atom:    8    charge:    1.4705    magn:    0.0006    constr:    0.0000
     atom:    9    charge:    1.4280    magn:   -0.0009    constr:    0.0000
     atom:   10    charge:    1.4419    magn:    0.0028    constr:    0.0000
     atom:   11    charge:    1.4280    magn:   -0.0009    constr:    0.0000
     atom:   12    charge:    1.4419    magn:    0.0028    constr:    0.0000
     atom:   13    charge:    1.4671    magn:   -0.0001    constr:    0.0000
     atom:   14    charge:    1.4705    magn:    0.0006    constr:    0.0000
     atom:   15    charge:    1.4419    magn:    0.0028    constr:    0.0000
     atom:   16    charge:    1.4493    magn:   -0.0029    constr:    0.0000
     atom:   17    charge:    1.4690    magn:    0.0009    constr:    0.0000
     atom:   18    charge:    1.4362    magn:    0.0002    constr:    0.0000
     atom:   19    charge:    1.4419    magn:    0.0028    constr:    0.0000
     atom:   20    charge:    1.4705    magn:    0.0006    constr:    0.0000
     atom:   21    charge:    1.4362    magn:    0.0002    constr:    0.0000
     atom:   22    charge:    1.4493    magn:   -0.0029    constr:    0.0000
     atom:   23    charge:    1.4828    magn:    0.0134    constr:    0.0000
     atom:   24    charge:    1.4419    magn:    0.0028    constr:    0.0000
     atom:   25    charge:    1.4493    magn:   -0.0029    constr:    0.0000
     atom:   26    charge:    1.4671    magn:   -0.0001    constr:    0.0000
     atom:   27    charge:    1.4705    magn:    0.0006    constr:    0.0000
     atom:   28    charge:    1.4705    magn:    0.0006    constr:    0.0000
     atom:   29    charge:    1.4828    magn:    0.0134    constr:    0.0000
     atom:   30    charge:    1.4705    magn:    0.0006    constr:    0.0000
     atom:   31    charge:    1.4828    magn:    0.0134    constr:    0.0000
     atom:   32    charge:    1.4179    magn:    0.0028    constr:    0.0000
     atom:   33    charge:    1.4562    magn:    0.0042    constr:    0.0000
     atom:   34    charge:    1.4423    magn:    0.0059    constr:    0.0000
     atom:   35    charge:    1.4376    magn:    0.0179    constr:    0.0000
     atom:   36    charge:    1.4523    magn:    0.0084    constr:    0.0000
     atom:   37    charge:    1.4423    magn:    0.0059    constr:    0.0000
     atom:   38    charge:    1.4523    magn:    0.0084    constr:    0.0000
     atom:   39    charge:    1.4423    magn:    0.0059    constr:    0.0000
     atom:   40    charge:    1.4541    magn:    0.0075    constr:    0.0000
     atom:   41    charge:    1.4376    magn:    0.0179    constr:    0.0000
     atom:   42    charge:    1.4423    magn:    0.0059    constr:    0.0000
     atom:   43    charge:    1.5453    magn:    0.1400    constr:    0.0000
     atom:   44    charge:    1.4125    magn:    0.0014    constr:    0.0000
     atom:   45    charge:    1.4179    magn:    0.0028    constr:    0.0000
     atom:   46    charge:    1.4523    magn:    0.0084    constr:    0.0000
     atom:   47    charge:    1.4541    magn:    0.0075    constr:    0.0000
     atom:   48    charge:    1.4562    magn:    0.0042    constr:    0.0000
     atom:   49    charge:    1.5453    magn:    0.1400    constr:    0.0000
     atom:   50    charge:    1.4402    magn:    0.0156    constr:    0.0000
     atom:   51    charge:    1.4423    magn:    0.0059    constr:    0.0000
     atom:   52    charge:    1.5453    magn:    0.1400    constr:    0.0000
     atom:   53    charge:    1.4541    magn:    0.0075    constr:    0.0000
     atom:   54    charge:    1.4376    magn:    0.0179    constr:    0.0000
     atom:   55    charge:    1.4376    magn:    0.0179    constr:    0.0000
     atom:   56    charge:    1.4402    magn:    0.0156    constr:    0.0000
     atom:   57    charge:    1.4376    magn:    0.0179    constr:    0.0000
     atom:   58    charge:    1.4402    magn:    0.0156    constr:    0.0000
     atom:   59    charge:    1.4179    magn:    0.0028    constr:    0.0000
     atom:   60    charge:    1.4562    magn:    0.0042    constr:    0.0000
     atom:   61    charge:    1.4423    magn:    0.0059    constr:    0.0000
     atom:   62    charge:    1.4376    magn:    0.0179    constr:    0.0000
     atom:   63    charge:    2.3381    magn:    0.0090    constr:    0.0000

     total cpu time spent up to now is        4.5 secs

     End of self-consistent calculation

 ------ SPIN UP ------------


          k = 0.0000 0.0000 0.0000 (  1357 PWs)   bands (ev):

    -9.1060  -7.7897  -5.9531  -5.9531  -5.8594  -5.8594  -5.6096  -4.9274
    -3.6428  -3.6428  -3.6119  -3.6119  -3.5522  -3.5522  -3.5136  -3.4733
    -3.4164  -3.4164  -2.9272  -2.6542  -2.3046  -2.3046  -1.6795   0.3956
     0.9547   0.9547   1.0904   1.0904   1.1282   1.2578   1.3209   1.3350
     1.3350   1.4090   1.5935   1.5935   1.7475   1.7475   1.7773   1.7998
     1.7998   1.8137   2.1531   2.1531   4.2815   5.6333   5.6333   5.6799
     5.8988   5.9060   5.9326   5.9326   5.9745   5.9745   6.2172   6.2172
     6.6341   6.6341   6.8136   6.8491   6.8643   6.8643   6.8735   6.9480
     6.9480   7.0799   7.1253   7.1253   7.2168   7.4862   7.4862   7.5298
     7.6053   7.6053   7.6454   7.6789   7.6789   8.4077   8.4339   8.4339
     9.4724   9.4724   9.4823   9.6052   9.7967   9.7967   9.8037  10.9108
    10.9218  10.9218  11.1131  11.1131  11.7317  11.7317  11.9403  11.9616
    11.9725  11.9725  12.0229  12.0229  12.0587  12.4601  12.4602  12.4705
    13.0644  13.0644  13.2920  13.2920  13.3232  13.3232  13.3409  13.3554
    13.4600  13.4600  13.4876  13.5104  13.5442  13.5641  13.5641  13.6667
    13.7346  13.7346  15.5735  16.1131  16.1131  17.5043  18.1881  18.1881
    18.8919  19.1789  19.1789  19.2357  19.2357  19.2889  19.4967  19.4967
    19.6709  19.9102  19.9102  20.0442  21.5297  21.5297  21.5330  22.3423
    22.7632  22.7632  22.8222  23.0158  23.0163  23.0399  23.1031  23.1465

     occupation numbers 
     1.0000   1.0000   1.0000   1.0000   1.0000   1.0000   1.0000   1.0000
     1.0000   1.0000   1.0000   1.0000   1.0000   1.0000   1.0000   1.0000
     1.0000   1.0000   1.0000   1.0000   1.0000   1.0000   1.0000   1.0000
     1.0000   1.0000   1.0000   1.0000   1.0000   1.0000   1.0000   1.0000
     1.0000   1.0000   1.0000   1.0000   1.0000   1.0000   1.0000   1.0000
     1.0000   1.0000   1.0000   1.0000   1.0000   1.0000   1.0000   1.0000
     1.0000   1.0000   1.0000   1.0000   1.0000   1.0000   1.0000   1.0000
     1.0000   1.0000   1.0000   1.0000   1.0000   1.0000   1.0000   1.0000
     1.0000   1.0000   1.0000   1.0000   1.0000   1.0000   1.0000   1.0000
     1.0000   1.0000   1.0000   1.0000   1.0000   1.0000   1.0000   1.0000
     1.0000   1.0000   1.0000   1.0000   1.0000   1.0000   1.0000   1.0000
     1.0000   1.0000   1.0000   1.0000   1.0000   1.0000   1.0000   1.0000
     1.0000   1.0000   1.0000   1.0000   1.0000   1.0000   1.0000   1.0000
     1.0000   1.0000   1.0000   1.0000   1.0000   1.0000   1.0000   1.0000
     1.0000   1.0000   1.0000   1.0000   1.0000   1.0000   1.0000   1.0000
     1.0000   1.0000   1.0000   1.0000   1.0000   1.0000   1.0000   1.0000
     0.0000   0.0000   0.0000   0.0000   0.0000   0.0000   0.0000   0.0000
     0.0000   0.0000   0.0000   0.0000   0.0000   0.0000   0.0000   0.0000
     0.0000   0.0000   0.0000   0.0000   0.0000   0.0000   0.0000   0.0000

 ------ SPIN DOWN ----------


          k = 0.0000 0.0000 0.0000 (  1357 PWs)   bands (ev):

    -9.0799  -7.7563  -5.9210  -5.9210  -5.8129  -5.8129  -5.5732  -4.9045
    -3.6132  -3.6132  -3.5839  -3.5839  -3.4991  -3.4991  -3.4750  -3.4532
    -3.3651  -3.3651  -2.8797  -2.6254  -2.2530  -2.2529  -1.5689   0.4666
     0.9717   0.9717   1.1273   1.1273   1.1586   1.2882   1.3525   1.3656
     1.3656   1.4473   1.6149   1.6149   1.7815   1.7815   1.8180   1.8263
     1.8263   1.8458   2.3043   2.3043   4.3916   5.6645   5.6645   5.7226
     5.9337   5.9407   5.9723   5.9723   6.0053   6.0053   6.2994   6.2994
     6.6522   6.6522   6.8523   6.8811   6.8938   6.8952   6.8952   6.9877
     6.9877   7.0945   7.1567   7.1567   7.2938   7.5247   7.5247   7.5561
     7.6246   7.6246   7.6676   7.7351   7.7351   8.4670   8.5152   8.5152
     9.5055   9.5055   9.6017   9.6470   9.8666   9.8666   9.8817  10.9489
    10.9489  10.9612  11.1770  11.1770  11.7730  11.7730  11.9934  11.9953
    11.9953  11.9991  12.0775  12.0775  12.0935  12.5037  12.5039  12.5039
    13.1018  13.1018  13.3218  13.3218  13.3519  13.3519  13.3611  13.3931
    13.4941  13.4941  13.5318  13.5862  13.5938  13.5938  13.7293  13.8015
    13.8015  13.8487  15.7666  16.3047  16.3047  17.6294  18.8206  18.8206
    18.9280  19.2253  19.2253  19.2688  19.2688  19.3212  19.5260  19.5260
    19.7413  20.0069  20.0069  20.1117  21.5763  21.5983  21.5984  22.3921
    22.7847  22.7847  22.8480  23.0529  23.0529  23.0660  23.1354  23.1354

     occupation numbers 
     1.0000   1.0000   1.0000   1.0000   1.0000   1.0000   1.0000   1.0000
     1.0000   1.0000   1.0000   1.0000   1.0000   1.0000   1.0000   1.0000
     1.0000   1.0000   1.0000   1.0000   1.0000   1.0000   1.0000   1.0000
     1.0000   1.0000   1.0000   1.0000   1.0000   1.0000   1.0000   1.0000
     1.0000   1.0000   1.0000   1.0000   1.0000   1.0000   1.0000   1.0000
     1.0000   1.0000   1.0000   1.0000   1.0000   1.0000   1.0000   1.0000
     1.0000   1.0000   1.0000   1.0000   1.0000   1.0000   1.0000   1.0000
     1.0000   1.0000   1.0000   1.0000   1.0000   1.0000   1.0000   1.0000
     1.0000   1.0000   1.0000   1.0000   1.0000   1.0000   1.0000   1.0000
     1.0000   1.0000   1.0000   1.0000   1.0000   1.0000   1.0000   1.0000
     1.0000   1.0000   1.0000   1.0000   1.0000   1.0000   1.0000   1.0000
     1.0000   1.0000   1.0000   1.0000   1.0000   1.0000   1.0000   1.0000
     1.0000   1.0000   1.0000   1.0000   1.0000   1.0000   1.0000   1.0000
     1.0000   1.0000   1.0000   1.0000   1.0000   1.0000   1.0000   1.0000
     1.0000   1.0000   1.0000   1.0000   1.0000   1.0000   1.0000   1.0000
     1.0000   1.0000   1.0000   1.0000   1.0000   1.0000   0.0000   0.0000
     0.0000   0.0000   0.0000   0.0000   0.0000   0.0000   0.0000   0.0000
     0.0000   0.0000   0.0000   0.0000   0.0000   0.0000   0.0000   0.0000
     0.0000   0.0000   0.0000   0.0000   0.0000   0.0000   0.0000   0.0000

     the Fermi energy is    18.6306 ev

!    total energy              =    -669.48226020 Ry
     Harris-Foulkes estimate   =    -669.48225900 Ry
     estimated scf accuracy    <       0.00000069 Ry

     The total energy is the sum of the following terms:

     one-electron contribution =     302.60378091 Ry
     hartree contribution      =      49.76256468 Ry
     xc contribution           =    -221.22802075 Ry
     ewald contribution        =    -800.62058506 Ry
     smearing contrib. (-TS)   =       0.00000000 Ry

     total magnetization       =     2.00 Bohr mag/cell
     absolute magnetization    =     2.19 Bohr mag/cell

     convergence has been achieved in  11 iterations

     Writing output data file di.save
 
     init_run     :      0.07s CPU      0.31s WALL (       1 calls)
     electrons    :      3.63s CPU      4.07s WALL (       1 calls)

     Called by init_run:
     wfcinit      :      0.06s CPU      0.18s WALL (       1 calls)
     wfcinit:atom :      0.00s CPU      0.00s WALL (       1 calls)
     wfcinit:wfcr :      0.06s CPU      0.16s WALL (       1 calls)
     potinit      :      0.00s CPU      0.01s WALL (       1 calls)

     Called by electrons:
     c_bands      :      3.49s CPU      3.77s WALL (      11 calls)
     sum_band     :      0.07s CPU      0.08s WALL (      11 calls)
     v_of_rho     :      0.03s CPU      0.03s WALL (      12 calls)
     v_h          :      0.00s CPU      0.00s WALL (      12 calls)
     v_xc         :      0.02s CPU      0.03s WALL (      12 calls)
     mix_rho      :      0.01s CPU      0.01s WALL (      11 calls)

     Called by c_bands:
     init_us_2    :      0.01s CPU      0.01s WALL (      23 calls)
     cegterg      :      3.16s CPU      3.42s WALL (      11 calls)

     Called by sum_band:

     Called by *egterg:
     h_psi        :      0.52s CPU      0.59s WALL (      62 calls)
     g_psi        :      0.00s CPU      0.00s WALL (      50 calls)
     cdiaghg      :      2.47s CPU      2.73s WALL (      61 calls)
     cegterg:over :      0.07s CPU      0.08s WALL (      50 calls)
     cegterg:upda :      0.06s CPU      0.06s WALL (      50 calls)
     cegterg:last :      0.03s CPU      0.03s WALL (      11 calls)
     cdiaghg:chol :      0.19s CPU      0.23s WALL (      61 calls)
     cdiaghg:inve :      0.20s CPU      0.22s WALL (      61 calls)
     cdiaghg:para :      0.30s CPU      0.35s WALL (     122 calls)

     Called by h_psi:
     h_psi:pot    :      0.51s CPU      0.59s WALL (      62 calls)
     h_psi:calbec :      0.13s CPU      0.13s WALL (      62 calls)
     vloc_psi     :      0.30s CPU      0.35s WALL (      62 calls)
     add_vuspsi   :      0.09s CPU      0.10s WALL (      62 calls)

     General routines
     calbec       :      0.12s CPU      0.13s WALL (      62 calls)
     fft          :      0.01s CPU      0.12s WALL (     249 calls)
     fftw         :      0.32s CPU      0.38s WALL (   10838 calls)
 
     Parallel routines
     fft_scatter  :      0.18s CPU      0.22s WALL (   11087 calls)
 
     PWSCF        :     3.85s CPU         6.52s WALL

 
   This run was terminated on:  16:37: 0  19Jun2019            

=------------------------------------------------------------------------------=
   JOB DONE.
=------------------------------------------------------------------------------=
